version 3
run General-0-20241229-18:45:13-59660
attr configname General
attr datetime 20241229-18:45:13
attr datetimef 20241229-184513
attr experiment General
attr inifile ../../simulations/omnetpp.ini
attr iterationvars ""
attr iterationvarsd ""
attr iterationvarsf ""
attr measurement ""
attr network abstract.Simulation
attr processid 59660
attr repetition 0
attr replication #0
attr resultdir results
attr runnumber 0
attr seedset 0
config network abstract.Simulation
config scheduler-class cSequentialScheduler
config simtime-resolution ms
config sim-time-limit 20s
config warmup-period 0s
config num-rngs 1
config rng-class cMersenneTwister
config seed-0-mt 200
config repeat 1
config check-signals false
config record-eventlog false

vector 0 Simulation.event_source "Actual Generated Operations" ETV
vector 1 Simulation.event_source "Actual Generated Situations" ETV
0	1	0.5	0
0	3	1	3
0	8	1.5	1
0	11	2	3
0	16	2.5	1
0	20	3	4
0	29	3.5	0
0	31	4	4
0	37	4.5	2
0	41	5	5
0	48	5.5	0
0	51	6	4
0	63	6.5	0
0	65	7	3
0	70	7.5	2
0	74	8	4
0	80	8.5	0
0	83	9	5
0	94	9.5	0
0	96	10	5
0	103	10.5	1
0	106	11	3
0	111	11.5	0
0	114	12	5
0	126	12.5	1
0	129	13	3
0	134	13.5	2
0	138	14	3
0	143	14.5	0
0	146	15	6
0	156	15.5	0
0	158	16	4
0	164	16.5	1
0	167	17	3
0	172	17.5	1
0	176	18	5
0	185	18.5	0
0	187	19	3
0	192	19.5	1
0	195	20	6
1	1	0.5	0
1	3	1	2
1	8	1.5	1
1	11	2	3
1	16	2.5	1
1	20	3	4
1	29	3.5	0
1	31	4	4
1	37	4.5	2
1	41	5	3
1	48	5.5	0
1	51	6	1
1	63	6.5	0
1	65	7	0
1	70	7.5	1
1	74	8	1
1	80	8.5	0
1	83	9	1
1	94	9.5	0
1	96	10	2
1	103	10.5	0
1	106	11	0
1	111	11.5	0
1	114	12	1
1	126	12.5	0
1	129	13	0
1	134	13.5	1
1	138	14	0
1	143	14.5	0
1	146	15	1
1	156	15.5	0
1	158	16	1
1	164	16.5	0
1	167	17	0
1	172	17.5	0
1	176	18	1
1	185	18.5	0
1	187	19	0
1	192	19.5	0
1	195	20	1

